V -t * -v 1.0a5 -a 0
A -t * -n 1 -p 0 -o 0x7fffffff -c 30 -a 1
A -t * -h 1 -m 1073741823 -s 0
c -t * -i 1 -n purple
c -t * -i 2 -n orange
n -t * -a 4 -s 4 -S UP -v circle -c black -i black
n -t * -a 0 -s 0 -S UP -v circle -c black -i black
n -t * -a 5 -s 5 -S UP -v circle -c black -i black
n -t * -a 1 -s 1 -S UP -v circle -c black -i black
n -t * -a 6 -s 6 -S UP -v circle -c black -i black
n -t * -a 2 -s 2 -S UP -v circle -c black -i black
n -t * -a 3 -s 3 -S UP -v circle -c black -i black
l -t * -s 0 -d 2 -S UP -r 1000000 -D 0.01 -c black -o right-down
l -t * -s 1 -d 2 -S UP -r 1000000 -D 0.01 -c black -o right-up
l -t * -s 2 -d 3 -S UP -r 300000 -D 0.10000000000000001 -c black -o right
X -t * -n 7 -r 0.5Mb -D 50ms -o left
L -t * -s 7 -d 3 -o up
L -t * -s 7 -d 4 -o down
L -t * -s 7 -d 5 -o up
L -t * -s 7 -d 6 -o down
n -t 0 -s 0 -S DLABEL -l "TCP_Traffic" -L ""
n -t 0 -s 1 -S DLABEL -l "UDP_Traffic" -L ""
+ -t 0.3 -s 1 -d 2 -p cbr -e 210 -c 2 -i 0 -a 2 -x {1.0 6.0 0 ------- null}
- -t 0.3 -s 1 -d 2 -p cbr -e 210 -c 2 -i 0 -a 2 -x {1.0 6.0 0 ------- null}
h -t 0.3 -s 1 -d 2 -p cbr -e 210 -c 2 -i 0 -a 2 -x {1.0 6.0 -1 ------- null}
+ -t 0.30375 -s 1 -d 2 -p cbr -e 210 -c 2 -i 1 -a 2 -x {1.0 6.0 1 ------- null}
- -t 0.30375 -s 1 -d 2 -p cbr -e 210 -c 2 -i 1 -a 2 -x {1.0 6.0 1 ------- null}
h -t 0.30375 -s 1 -d 2 -p cbr -e 210 -c 2 -i 1 -a 2 -x {1.0 6.0 -1 ------- null}
+ -t 0.3075 -s 1 -d 2 -p cbr -e 210 -c 2 -i 2 -a 2 -x {1.0 6.0 2 ------- null}
- -t 0.3075 -s 1 -d 2 -p cbr -e 210 -c 2 -i 2 -a 2 -x {1.0 6.0 2 ------- null}
h -t 0.3075 -s 1 -d 2 -p cbr -e 210 -c 2 -i 2 -a 2 -x {1.0 6.0 -1 ------- null}
+ -t 0.31125 -s 1 -d 2 -p cbr -e 210 -c 2 -i 3 -a 2 -x {1.0 6.0 3 ------- null}
- -t 0.31125 -s 1 -d 2 -p cbr -e 210 -c 2 -i 3 -a 2 -x {1.0 6.0 3 ------- null}
h -t 0.31125 -s 1 -d 2 -p cbr -e 210 -c 2 -i 3 -a 2 -x {1.0 6.0 -1 ------- null}
r -t 0.31168 -s 1 -d 2 -p cbr -e 210 -c 2 -i 0 -a 2 -x {1.0 6.0 0 ------- null}
+ -t 0.31168 -s 2 -d 3 -p cbr -e 210 -c 2 -i 0 -a 2 -x {1.0 6.0 0 ------- null}
- -t 0.31168 -s 2 -d 3 -p cbr -e 210 -c 2 -i 0 -a 2 -x {1.0 6.0 0 ------- null}
h -t 0.31168 -s 2 -d 3 -p cbr -e 210 -c 2 -i 0 -a 2 -x {1.0 6.0 -1 ------- null}
+ -t 0.315 -s 1 -d 2 -p cbr -e 210 -c 2 -i 4 -a 2 -x {1.0 6.0 4 ------- null}
- -t 0.315 -s 1 -d 2 -p cbr -e 210 -c 2 -i 4 -a 2 -x {1.0 6.0 4 ------- null}
h -t 0.315 -s 1 -d 2 -p cbr -e 210 -c 2 -i 4 -a 2 -x {1.0 6.0 -1 ------- null}
r -t 0.31543 -s 1 -d 2 -p cbr -e 210 -c 2 -i 1 -a 2 -x {1.0 6.0 1 ------- null}
+ -t 0.31543 -s 2 -d 3 -p cbr -e 210 -c 2 -i 1 -a 2 -x {1.0 6.0 1 ------- null}
- -t 0.31728 -s 2 -d 3 -p cbr -e 210 -c 2 -i 1 -a 2 -x {1.0 6.0 1 ------- null}
h -t 0.31728 -s 2 -d 3 -p cbr -e 210 -c 2 -i 1 -a 2 -x {1.0 6.0 -1 ------- null}
+ -t 0.31875 -s 1 -d 2 -p cbr -e 210 -c 2 -i 5 -a 2 -x {1.0 6.0 5 ------- null}
- -t 0.31875 -s 1 -d 2 -p cbr -e 210 -c 2 -i 5 -a 2 -x {1.0 6.0 5 ------- null}
h -t 0.31875 -s 1 -d 2 -p cbr -e 210 -c 2 -i 5 -a 2 -x {1.0 6.0 -1 ------- null}
r -t 0.31918 -s 1 -d 2 -p cbr -e 210 -c 2 -i 2 -a 2 -x {1.0 6.0 2 ------- null}
+ -t 0.31918 -s 2 -d 3 -p cbr -e 210 -c 2 -i 2 -a 2 -x {1.0 6.0 2 ------- null}
+ -t 0.3225 -s 1 -d 2 -p cbr -e 210 -c 2 -i 6 -a 2 -x {1.0 6.0 6 ------- null}
- -t 0.3225 -s 1 -d 2 -p cbr -e 210 -c 2 -i 6 -a 2 -x {1.0 6.0 6 ------- null}
h -t 0.3225 -s 1 -d 2 -p cbr -e 210 -c 2 -i 6 -a 2 -x {1.0 6.0 -1 ------- null}
- -t 0.32288 -s 2 -d 3 -p cbr -e 210 -c 2 -i 2 -a 2 -x {1.0 6.0 2 ------- null}
h -t 0.32288 -s 2 -d 3 -p cbr -e 210 -c 2 -i 2 -a 2 -x {1.0 6.0 -1 ------- null}
r -t 0.32293 -s 1 -d 2 -p cbr -e 210 -c 2 -i 3 -a 2 -x {1.0 6.0 3 ------- null}
+ -t 0.32293 -s 2 -d 3 -p cbr -e 210 -c 2 -i 3 -a 2 -x {1.0 6.0 3 ------- null}
+ -t 0.32625 -s 1 -d 2 -p cbr -e 210 -c 2 -i 7 -a 2 -x {1.0 6.0 7 ------- null}
- -t 0.32625 -s 1 -d 2 -p cbr -e 210 -c 2 -i 7 -a 2 -x {1.0 6.0 7 ------- null}
h -t 0.32625 -s 1 -d 2 -p cbr -e 210 -c 2 -i 7 -a 2 -x {1.0 6.0 -1 ------- null}
r -t 0.32668 -s 1 -d 2 -p cbr -e 210 -c 2 -i 4 -a 2 -x {1.0 6.0 4 ------- null}
+ -t 0.32668 -s 2 -d 3 -p cbr -e 210 -c 2 -i 4 -a 2 -x {1.0 6.0 4 ------- null}
- -t 0.32848 -s 2 -d 3 -p cbr -e 210 -c 2 -i 3 -a 2 -x {1.0 6.0 3 ------- null}
h -t 0.32848 -s 2 -d 3 -p cbr -e 210 -c 2 -i 3 -a 2 -x {1.0 6.0 -1 ------- null}
+ -t 0.33 -s 1 -d 2 -p cbr -e 210 -c 2 -i 8 -a 2 -x {1.0 6.0 8 ------- null}
- -t 0.33 -s 1 -d 2 -p cbr -e 210 -c 2 -i 8 -a 2 -x {1.0 6.0 8 ------- null}
h -t 0.33 -s 1 -d 2 -p cbr -e 210 -c 2 -i 8 -a 2 -x {1.0 6.0 -1 ------- null}
r -t 0.33043 -s 1 -d 2 -p cbr -e 210 -c 2 -i 5 -a 2 -x {1.0 6.0 5 ------- null}
+ -t 0.33043 -s 2 -d 3 -p cbr -e 210 -c 2 -i 5 -a 2 -x {1.0 6.0 5 ------- null}
+ -t 0.33375 -s 1 -d 2 -p cbr -e 210 -c 2 -i 9 -a 2 -x {1.0 6.0 9 ------- null}
- -t 0.33375 -s 1 -d 2 -p cbr -e 210 -c 2 -i 9 -a 2 -x {1.0 6.0 9 ------- null}
h -t 0.33375 -s 1 -d 2 -p cbr -e 210 -c 2 -i 9 -a 2 -x {1.0 6.0 -1 ------- null}
- -t 0.33408 -s 2 -d 3 -p cbr -e 210 -c 2 -i 4 -a 2 -x {1.0 6.0 4 ------- null}
h -t 0.33408 -s 2 -d 3 -p cbr -e 210 -c 2 -i 4 -a 2 -x {1.0 6.0 -1 ------- null}
r -t 0.33418 -s 1 -d 2 -p cbr -e 210 -c 2 -i 6 -a 2 -x {1.0 6.0 6 ------- null}
+ -t 0.33418 -s 2 -d 3 -p cbr -e 210 -c 2 -i 6 -a 2 -x {1.0 6.0 6 ------- null}
+ -t 0.3375 -s 1 -d 2 -p cbr -e 210 -c 2 -i 10 -a 2 -x {1.0 6.0 10 ------- null}
- -t 0.3375 -s 1 -d 2 -p cbr -e 210 -c 2 -i 10 -a 2 -x {1.0 6.0 10 ------- null}
h -t 0.3375 -s 1 -d 2 -p cbr -e 210 -c 2 -i 10 -a 2 -x {1.0 6.0 -1 ------- null}
r -t 0.33793 -s 1 -d 2 -p cbr -e 210 -c 2 -i 7 -a 2 -x {1.0 6.0 7 ------- null}
+ -t 0.33793 -s 2 -d 3 -p cbr -e 210 -c 2 -i 7 -a 2 -x {1.0 6.0 7 ------- null}
- -t 0.33968 -s 2 -d 3 -p cbr -e 210 -c 2 -i 5 -a 2 -x {1.0 6.0 5 ------- null}
h -t 0.33968 -s 2 -d 3 -p cbr -e 210 -c 2 -i 5 -a 2 -x {1.0 6.0 -1 ------- null}
+ -t 0.34125 -s 1 -d 2 -p cbr -e 210 -c 2 -i 11 -a 2 -x {1.0 6.0 11 ------- null}
- -t 0.34125 -s 1 -d 2 -p cbr -e 210 -c 2 -i 11 -a 2 -x {1.0 6.0 11 ------- null}
h -t 0.34125 -s 1 -d 2 -p cbr -e 210 -c 2 -i 11 -a 2 -x {1.0 6.0 -1 ------- null}
r -t 0.34168 -s 1 -d 2 -p cbr -e 210 -c 2 -i 8 -a 2 -x {1.0 6.0 8 ------- null}
+ -t 0.34168 -s 2 -d 3 -p cbr -e 210 -c 2 -i 8 -a 2 -x {1.0 6.0 8 ------- null}
+ -t 0.345 -s 1 -d 2 -p cbr -e 210 -c 2 -i 12 -a 2 -x {1.0 6.0 12 ------- null}
- -t 0.345 -s 1 -d 2 -p cbr -e 210 -c 2 -i 12 -a 2 -x {1.0 6.0 12 ------- null}
h -t 0.345 -s 1 -d 2 -p cbr -e 210 -c 2 -i 12 -a 2 -x {1.0 6.0 -1 ------- null}
- -t 0.34528 -s 2 -d 3 -p cbr -e 210 -c 2 -i 6 -a 2 -x {1.0 6.0 6 ------- null}
h -t 0.34528 -s 2 -d 3 -p cbr -e 210 -c 2 -i 6 -a 2 -x {1.0 6.0 -1 ------- null}
r -t 0.34543 -s 1 -d 2 -p cbr -e 210 -c 2 -i 9 -a 2 -x {1.0 6.0 9 ------- null}
+ -t 0.34543 -s 2 -d 3 -p cbr -e 210 -c 2 -i 9 -a 2 -x {1.0 6.0 9 ------- null}
+ -t 0.34875 -s 1 -d 2 -p cbr -e 210 -c 2 -i 13 -a 2 -x {1.0 6.0 13 ------- null}
- -t 0.34875 -s 1 -d 2 -p cbr -e 210 -c 2 -i 13 -a 2 -x {1.0 6.0 13 ------- null}
h -t 0.34875 -s 1 -d 2 -p cbr -e 210 -c 2 -i 13 -a 2 -x {1.0 6.0 -1 ------- null}
r -t 0.34918 -s 1 -d 2 -p cbr -e 210 -c 2 -i 10 -a 2 -x {1.0 6.0 10 ------- null}
+ -t 0.34918 -s 2 -d 3 -p cbr -e 210 -c 2 -i 10 -a 2 -x {1.0 6.0 10 ------- null}
- -t 0.35088 -s 2 -d 3 -p cbr -e 210 -c 2 -i 7 -a 2 -x {1.0 6.0 7 ------- null}
h -t 0.35088 -s 2 -d 3 -p cbr -e 210 -c 2 -i 7 -a 2 -x {1.0 6.0 -1 ------- null}
+ -t 0.3525 -s 1 -d 2 -p cbr -e 210 -c 2 -i 14 -a 2 -x {1.0 6.0 14 ------- null}
- -t 0.3525 -s 1 -d 2 -p cbr -e 210 -c 2 -i 14 -a 2 -x {1.0 6.0 14 ------- null}
h -t 0.3525 -s 1 -d 2 -p cbr -e 210 -c 2 -i 14 -a 2 -x {1.0 6.0 -1 ------- null}
r -t 0.35293 -s 1 -d 2 -p cbr -e 210 -c 2 -i 11 -a 2 -x {1.0 6.0 11 ------- null}
+ -t 0.35293 -s 2 -d 3 -p cbr -e 210 -c 2 -i 11 -a 2 -x {1.0 6.0 11 ------- null}
+ -t 0.35625 -s 1 -d 2 -p cbr -e 210 -c 2 -i 15 -a 2 -x {1.0 6.0 15 ------- null}
- -t 0.35625 -s 1 -d 2 -p cbr -e 210 -c 2 -i 15 -a 2 -x {1.0 6.0 15 ------- null}
h -t 0.35625 -s 1 -d 2 -p cbr -e 210 -c 2 -i 15 -a 2 -x {1.0 6.0 -1 ------- null}
- -t 0.35648 -s 2 -d 3 -p cbr -e 210 -c 2 -i 8 -a 2 -x {1.0 6.0 8 ------- null}
h -t 0.35648 -s 2 -d 3 -p cbr -e 210 -c 2 -i 8 -a 2 -x {1.0 6.0 -1 ------- null}
r -t 0.35668 -s 1 -d 2 -p cbr -e 210 -c 2 -i 12 -a 2 -x {1.0 6.0 12 ------- null}
+ -t 0.35668 -s 2 -d 3 -p cbr -e 210 -c 2 -i 12 -a 2 -x {1.0 6.0 12 ------- null}
+ -t 0.36 -s 1 -d 2 -p cbr -e 210 -c 2 -i 16 -a 2 -x {1.0 6.0 16 ------- null}
- -t 0.36 -s 1 -d 2 -p cbr -e 210 -c 2 -i 16 -a 2 -x {1.0 6.0 16 ------- null}
h -t 0.36 -s 1 -d 2 -p cbr -e 210 -c 2 -i 16 -a 2 -x {1.0 6.0 -1 ------- null}
r -t 0.36043 -s 1 -d 2 -p cbr -e 210 -c 2 -i 13 -a 2 -x {1.0 6.0 13 ------- null}
+ -t 0.36043 -s 2 -d 3 -p cbr -e 210 -c 2 -i 13 -a 2 -x {1.0 6.0 13 ------- null}
- -t 0.36208 -s 2 -d 3 -p cbr -e 210 -c 2 -i 9 -a 2 -x {1.0 6.0 9 ------- null}
h -t 0.36208 -s 2 -d 3 -p cbr -e 210 -c 2 -i 9 -a 2 -x {1.0 6.0 -1 ------- null}
+ -t 0.36375 -s 1 -d 2 -p cbr -e 210 -c 2 -i 17 -a 2 -x {1.0 6.0 17 ------- null}
- -t 0.36375 -s 1 -d 2 -p cbr -e 210 -c 2 -i 17 -a 2 -x {1.0 6.0 17 ------- null}
h -t 0.36375 -s 1 -d 2 -p cbr -e 210 -c 2 -i 17 -a 2 -x {1.0 6.0 -1 ------- null}
r -t 0.36418 -s 1 -d 2 -p cbr -e 210 -c 2 -i 14 -a 2 -x {1.0 6.0 14 ------- null}
+ -t 0.36418 -s 2 -d 3 -p cbr -e 210 -c 2 -i 14 -a 2 -x {1.0 6.0 14 ------- null}
+ -t 0.3675 -s 1 -d 2 -p cbr -e 210 -c 2 -i 18 -a 2 -x {1.0 6.0 18 ------- null}
- -t 0.3675 -s 1 -d 2 -p cbr -e 210 -c 2 -i 18 -a 2 -x {1.0 6.0 18 ------- null}
h -t 0.3675 -s 1 -d 2 -p cbr -e 210 -c 2 -i 18 -a 2 -x {1.0 6.0 -1 ------- null}
- -t 0.36768 -s 2 -d 3 -p cbr -e 210 -c 2 -i 10 -a 2 -x {1.0 6.0 10 ------- null}
h -t 0.36768 -s 2 -d 3 -p cbr -e 210 -c 2 -i 10 -a 2 -x {1.0 6.0 -1 ------- null}
r -t 0.36793 -s 1 -d 2 -p cbr -e 210 -c 2 -i 15 -a 2 -x {1.0 6.0 15 ------- null}
+ -t 0.36793 -s 2 -d 3 -p cbr -e 210 -c 2 -i 15 -a 2 -x {1.0 6.0 15 ------- null}
+ -t 0.37125 -s 1 -d 2 -p cbr -e 210 -c 2 -i 19 -a 2 -x {1.0 6.0 19 ------- null}
- -t 0.37125 -s 1 -d 2 -p cbr -e 210 -c 2 -i 19 -a 2 -x {1.0 6.0 19 ------- null}
h -t 0.37125 -s 1 -d 2 -p cbr -e 210 -c 2 -i 19 -a 2 -x {1.0 6.0 -1 ------- null}
r -t 0.37168 -s 1 -d 2 -p cbr -e 210 -c 2 -i 16 -a 2 -x {1.0 6.0 16 ------- null}
+ -t 0.37168 -s 2 -d 3 -p cbr -e 210 -c 2 -i 16 -a 2 -x {1.0 6.0 16 ------- null}
- -t 0.37328 -s 2 -d 3 -p cbr -e 210 -c 2 -i 11 -a 2 -x {1.0 6.0 11 ------- null}
h -t 0.37328 -s 2 -d 3 -p cbr -e 210 -c 2 -i 11 -a 2 -x {1.0 6.0 -1 ------- null}
+ -t 0.375 -s 1 -d 2 -p cbr -e 210 -c 2 -i 20 -a 2 -x {1.0 6.0 20 ------- null}
- -t 0.375 -s 1 -d 2 -p cbr -e 210 -c 2 -i 20 -a 2 -x {1.0 6.0 20 ------- null}
h -t 0.375 -s 1 -d 2 -p cbr -e 210 -c 2 -i 20 -a 2 -x {1.0 6.0 -1 ------- null}
r -t 0.37543 -s 1 -d 2 -p cbr -e 210 -c 2 -i 17 -a 2 -x {1.0 6.0 17 ------- null}
+ -t 0.37543 -s 2 -d 3 -p cbr -e 210 -c 2 -i 17 -a 2 -x {1.0 6.0 17 ------- null}
+ -t 0.378749999999999 -s 1 -d 2 -p cbr -e 210 -c 2 -i 21 -a 2 -x {1.0 6.0 21 ------- null}
- -t 0.378749999999999 -s 1 -d 2 -p cbr -e 210 -c 2 -i 21 -a 2 -x {1.0 6.0 21 ------- null}
h -t 0.378749999999999 -s 1 -d 2 -p cbr -e 210 -c 2 -i 21 -a 2 -x {1.0 6.0 -1 ------- null}
- -t 0.37888 -s 2 -d 3 -p cbr -e 210 -c 2 -i 12 -a 2 -x {1.0 6.0 12 ------- null}
h -t 0.37888 -s 2 -d 3 -p cbr -e 210 -c 2 -i 12 -a 2 -x {1.0 6.0 -1 ------- null}
r -t 0.37918 -s 1 -d 2 -p cbr -e 210 -c 2 -i 18 -a 2 -x {1.0 6.0 18 ------- null}
+ -t 0.37918 -s 2 -d 3 -p cbr -e 210 -c 2 -i 18 -a 2 -x {1.0 6.0 18 ------- null}
+ -t 0.382499999999999 -s 1 -d 2 -p cbr -e 210 -c 2 -i 22 -a 2 -x {1.0 6.0 22 ------- null}
- -t 0.382499999999999 -s 1 -d 2 -p cbr -e 210 -c 2 -i 22 -a 2 -x {1.0 6.0 22 ------- null}
h -t 0.382499999999999 -s 1 -d 2 -p cbr -e 210 -c 2 -i 22 -a 2 -x {1.0 6.0 -1 ------- null}
r -t 0.38293 -s 1 -d 2 -p cbr -e 210 -c 2 -i 19 -a 2 -x {1.0 6.0 19 ------- null}
+ -t 0.38293 -s 2 -d 3 -p cbr -e 210 -c 2 -i 19 -a 2 -x {1.0 6.0 19 ------- null}
- -t 0.38448 -s 2 -d 3 -p cbr -e 210 -c 2 -i 13 -a 2 -x {1.0 6.0 13 ------- null}
h -t 0.38448 -s 2 -d 3 -p cbr -e 210 -c 2 -i 13 -a 2 -x {1.0 6.0 -1 ------- null}
+ -t 0.386249999999999 -s 1 -d 2 -p cbr -e 210 -c 2 -i 23 -a 2 -x {1.0 6.0 23 ------- null}
- -t 0.386249999999999 -s 1 -d 2 -p cbr -e 210 -c 2 -i 23 -a 2 -x {1.0 6.0 23 ------- null}
h -t 0.386249999999999 -s 1 -d 2 -p cbr -e 210 -c 2 -i 23 -a 2 -x {1.0 6.0 -1 ------- null}
r -t 0.38668 -s 1 -d 2 -p cbr -e 210 -c 2 -i 20 -a 2 -x {1.0 6.0 20 ------- null}
+ -t 0.38668 -s 2 -d 3 -p cbr -e 210 -c 2 -i 20 -a 2 -x {1.0 6.0 20 ------- null}
+ -t 0.389999999999999 -s 1 -d 2 -p cbr -e 210 -c 2 -i 24 -a 2 -x {1.0 6.0 24 ------- null}
- -t 0.389999999999999 -s 1 -d 2 -p cbr -e 210 -c 2 -i 24 -a 2 -x {1.0 6.0 24 ------- null}
h -t 0.389999999999999 -s 1 -d 2 -p cbr -e 210 -c 2 -i 24 -a 2 -x {1.0 6.0 -1 ------- null}
- -t 0.39008 -s 2 -d 3 -p cbr -e 210 -c 2 -i 14 -a 2 -x {1.0 6.0 14 ------- null}
h -t 0.39008 -s 2 -d 3 -p cbr -e 210 -c 2 -i 14 -a 2 -x {1.0 6.0 -1 ------- null}
r -t 0.390429999999999 -s 1 -d 2 -p cbr -e 210 -c 2 -i 21 -a 2 -x {1.0 6.0 21 ------- null}
+ -t 0.390429999999999 -s 2 -d 3 -p cbr -e 210 -c 2 -i 21 -a 2 -x {1.0 6.0 21 ------- null}
+ -t 0.393749999999999 -s 1 -d 2 -p cbr -e 210 -c 2 -i 25 -a 2 -x {1.0 6.0 25 ------- null}
- -t 0.393749999999999 -s 1 -d 2 -p cbr -e 210 -c 2 -i 25 -a 2 -x {1.0 6.0 25 ------- null}
h -t 0.393749999999999 -s 1 -d 2 -p cbr -e 210 -c 2 -i 25 -a 2 -x {1.0 6.0 -1 ------- null}
r -t 0.394179999999999 -s 1 -d 2 -p cbr -e 210 -c 2 -i 22 -a 2 -x {1.0 6.0 22 ------- null}
+ -t 0.394179999999999 -s 2 -d 3 -p cbr -e 210 -c 2 -i 22 -a 2 -x {1.0 6.0 22 ------- null}
- -t 0.39568 -s 2 -d 3 -p cbr -e 210 -c 2 -i 15 -a 2 -x {1.0 6.0 15 ------- null}
h -t 0.39568 -s 2 -d 3 -p cbr -e 210 -c 2 -i 15 -a 2 -x {1.0 6.0 -1 ------- null}
+ -t 0.397499999999999 -s 1 -d 2 -p cbr -e 210 -c 2 -i 26 -a 2 -x {1.0 6.0 26 ------- null}
- -t 0.397499999999999 -s 1 -d 2 -p cbr -e 210 -c 2 -i 26 -a 2 -x {1.0 6.0 26 ------- null}
h -t 0.397499999999999 -s 1 -d 2 -p cbr -e 210 -c 2 -i 26 -a 2 -x {1.0 6.0 -1 ------- null}
r -t 0.397929999999999 -s 1 -d 2 -p cbr -e 210 -c 2 -i 23 -a 2 -x {1.0 6.0 23 ------- null}
+ -t 0.397929999999999 -s 2 -d 3 -p cbr -e 210 -c 2 -i 23 -a 2 -x {1.0 6.0 23 ------- null}
+ -t 0.401249999999999 -s 1 -d 2 -p cbr -e 210 -c 2 -i 27 -a 2 -x {1.0 6.0 27 ------- null}
- -t 0.401249999999999 -s 1 -d 2 -p cbr -e 210 -c 2 -i 27 -a 2 -x {1.0 6.0 27 ------- null}
h -t 0.401249999999999 -s 1 -d 2 -p cbr -e 210 -c 2 -i 27 -a 2 -x {1.0 6.0 -1 ------- null}
- -t 0.40128 -s 2 -d 3 -p cbr -e 210 -c 2 -i 16 -a 2 -x {1.0 6.0 16 ------- null}
h -t 0.40128 -s 2 -d 3 -p cbr -e 210 -c 2 -i 16 -a 2 -x {1.0 6.0 -1 ------- null}
r -t 0.401679999999999 -s 1 -d 2 -p cbr -e 210 -c 2 -i 24 -a 2 -x {1.0 6.0 24 ------- null}
+ -t 0.401679999999999 -s 2 -d 3 -p cbr -e 210 -c 2 -i 24 -a 2 -x {1.0 6.0 24 ------- null}
+ -t 0.404999999999999 -s 1 -d 2 -p cbr -e 210 -c 2 -i 28 -a 2 -x {1.0 6.0 28 ------- null}
- -t 0.404999999999999 -s 1 -d 2 -p cbr -e 210 -c 2 -i 28 -a 2 -x {1.0 6.0 28 ------- null}
h -t 0.404999999999999 -s 1 -d 2 -p cbr -e 210 -c 2 -i 28 -a 2 -x {1.0 6.0 -1 ------- null}
r -t 0.405429999999999 -s 1 -d 2 -p cbr -e 210 -c 2 -i 25 -a 2 -x {1.0 6.0 25 ------- null}
+ -t 0.405429999999999 -s 2 -d 3 -p cbr -e 210 -c 2 -i 25 -a 2 -x {1.0 6.0 25 ------- null}
- -t 0.40688 -s 2 -d 3 -p cbr -e 210 -c 2 -i 17 -a 2 -x {1.0 6.0 17 ------- null}
h -t 0.40688 -s 2 -d 3 -p cbr -e 210 -c 2 -i 17 -a 2 -x {1.0 6.0 -1 ------- null}
+ -t 0.408749999999999 -s 1 -d 2 -p cbr -e 210 -c 2 -i 29 -a 2 -x {1.0 6.0 29 ------- null}
- -t 0.408749999999999 -s 1 -d 2 -p cbr -e 210 -c 2 -i 29 -a 2 -x {1.0 6.0 29 ------- null}
h -t 0.408749999999999 -s 1 -d 2 -p cbr -e 210 -c 2 -i 29 -a 2 -x {1.0 6.0 -1 ------- null}
r -t 0.409179999999999 -s 1 -d 2 -p cbr -e 210 -c 2 -i 26 -a 2 -x {1.0 6.0 26 ------- null}
+ -t 0.409179999999999 -s 2 -d 3 -p cbr -e 210 -c 2 -i 26 -a 2 -x {1.0 6.0 26 ------- null}
- -t 0.41248 -s 2 -d 3 -p cbr -e 210 -c 2 -i 18 -a 2 -x {1.0 6.0 18 ------- null}
h -t 0.41248 -s 2 -d 3 -p cbr -e 210 -c 2 -i 18 -a 2 -x {1.0 6.0 -1 ------- null}
+ -t 0.412499999999999 -s 1 -d 2 -p cbr -e 210 -c 2 -i 30 -a 2 -x {1.0 6.0 30 ------- null}
- -t 0.412499999999999 -s 1 -d 2 -p cbr -e 210 -c 2 -i 30 -a 2 -x {1.0 6.0 30 ------- null}
h -t 0.412499999999999 -s 1 -d 2 -p cbr -e 210 -c 2 -i 30 -a 2 -x {1.0 6.0 -1 ------- null}
r -t 0.412929999999999 -s 1 -d 2 -p cbr -e 210 -c 2 -i 27 -a 2 -x {1.0 6.0 27 ------- null}
+ -t 0.412929999999999 -s 2 -d 3 -p cbr -e 210 -c 2 -i 27 -a 2 -x {1.0 6.0 27 ------- null}
+ -t 0.416249999999999 -s 1 -d 2 -p cbr -e 210 -c 2 -i 31 -a 2 -x {1.0 6.0 31 ------- null}
- -t 0.416249999999999 -s 1 -d 2 -p cbr -e 210 -c 2 -i 31 -a 2 -x {1.0 6.0 31 ------- null}
h -t 0.416249999999999 -s 1 -d 2 -p cbr -e 210 -c 2 -i 31 -a 2 -x {1.0 6.0 -1 ------- null}
r -t 0.416679999999999 -s 1 -d 2 -p cbr -e 210 -c 2 -i 28 -a 2 -x {1.0 6.0 28 ------- null}
+ -t 0.416679999999999 -s 2 -d 3 -p cbr -e 210 -c 2 -i 28 -a 2 -x {1.0 6.0 28 ------- null}
r -t 0.41728 -s 2 -d 3 -p cbr -e 210 -c 2 -i 0 -a 2 -x {1.0 6.0 0 ------- null}
h -t 0.41728 -s 3 -d 7 -p cbr -e 210 -c 2 -i 0 -a 2 -x {1.0 6.0 0 ------- null}
- -t 0.41808 -s 2 -d 3 -p cbr -e 210 -c 2 -i 19 -a 2 -x {1.0 6.0 19 ------- null}
h -t 0.41808 -s 2 -d 3 -p cbr -e 210 -c 2 -i 19 -a 2 -x {1.0 6.0 -1 ------- null}
+ -t 0.419999999999999 -s 1 -d 2 -p cbr -e 210 -c 2 -i 32 -a 2 -x {1.0 6.0 32 ------- null}
- -t 0.419999999999999 -s 1 -d 2 -p cbr -e 210 -c 2 -i 32 -a 2 -x {1.0 6.0 32 ------- null}
h -t 0.419999999999999 -s 1 -d 2 -p cbr -e 210 -c 2 -i 32 -a 2 -x {1.0 6.0 -1 ------- null}
r -t 0.420429999999999 -s 1 -d 2 -p cbr -e 210 -c 2 -i 29 -a 2 -x {1.0 6.0 29 ------- null}
+ -t 0.420429999999999 -s 2 -d 3 -p cbr -e 210 -c 2 -i 29 -a 2 -x {1.0 6.0 29 ------- null}
r -t 0.42288 -s 2 -d 3 -p cbr -e 210 -c 2 -i 1 -a 2 -x {1.0 6.0 1 ------- null}
h -t 0.42288 -s 3 -d 7 -p cbr -e 210 -c 2 -i 1 -a 2 -x {1.0 6.0 1 ------- null}
- -t 0.42368 -s 2 -d 3 -p cbr -e 210 -c 2 -i 20 -a 2 -x {1.0 6.0 20 ------- null}
h -t 0.42368 -s 2 -d 3 -p cbr -e 210 -c 2 -i 20 -a 2 -x {1.0 6.0 -1 ------- null}
+ -t 0.423749999999999 -s 1 -d 2 -p cbr -e 210 -c 2 -i 33 -a 2 -x {1.0 6.0 33 ------- null}
- -t 0.423749999999999 -s 1 -d 2 -p cbr -e 210 -c 2 -i 33 -a 2 -x {1.0 6.0 33 ------- null}
h -t 0.423749999999999 -s 1 -d 2 -p cbr -e 210 -c 2 -i 33 -a 2 -x {1.0 6.0 -1 ------- null}
r -t 0.424179999999999 -s 1 -d 2 -p cbr -e 210 -c 2 -i 30 -a 2 -x {1.0 6.0 30 ------- null}
+ -t 0.424179999999999 -s 2 -d 3 -p cbr -e 210 -c 2 -i 30 -a 2 -x {1.0 6.0 30 ------- null}
+ -t 0.427499999999999 -s 1 -d 2 -p cbr -e 210 -c 2 -i 34 -a 2 -x {1.0 6.0 34 ------- null}
- -t 0.427499999999999 -s 1 -d 2 -p cbr -e 210 -c 2 -i 34 -a 2 -x {1.0 6.0 34 ------- null}
h -t 0.427499999999999 -s 1 -d 2 -p cbr -e 210 -c 2 -i 34 -a 2 -x {1.0 6.0 -1 ------- null}
r -t 0.427929999999999 -s 1 -d 2 -p cbr -e 210 -c 2 -i 31 -a 2 -x {1.0 6.0 31 ------- null}
+ -t 0.427929999999999 -s 2 -d 3 -p cbr -e 210 -c 2 -i 31 -a 2 -x {1.0 6.0 31 ------- null}
r -t 0.42848 -s 2 -d 3 -p cbr -e 210 -c 2 -i 2 -a 2 -x {1.0 6.0 2 ------- null}
h -t 0.42848 -s 3 -d 7 -p cbr -e 210 -c 2 -i 2 -a 2 -x {1.0 6.0 2 ------- null}
- -t 0.42928 -s 2 -d 3 -p cbr -e 210 -c 2 -i 21 -a 2 -x {1.0 6.0 21 ------- null}
h -t 0.42928 -s 2 -d 3 -p cbr -e 210 -c 2 -i 21 -a 2 -x {1.0 6.0 -1 ------- null}
+ -t 0.431249999999999 -s 1 -d 2 -p cbr -e 210 -c 2 -i 35 -a 2 -x {1.0 6.0 35 ------- null}
- -t 0.431249999999999 -s 1 -d 2 -p cbr -e 210 -c 2 -i 35 -a 2 -x {1.0 6.0 35 ------- null}
h -t 0.431249999999999 -s 1 -d 2 -p cbr -e 210 -c 2 -i 35 -a 2 -x {1.0 6.0 -1 ------- null}
r -t 0.431679999999999 -s 1 -d 2 -p cbr -e 210 -c 2 -i 32 -a 2 -x {1.0 6.0 32 ------- null}
+ -t 0.431679999999999 -s 2 -d 3 -p cbr -e 210 -c 2 -i 32 -a 2 -x {1.0 6.0 32 ------- null}
r -t 0.43408 -s 2 -d 3 -p cbr -e 210 -c 2 -i 3 -a 2 -x {1.0 6.0 3 ------- null}
h -t 0.43408 -s 3 -d 7 -p cbr -e 210 -c 2 -i 3 -a 2 -x {1.0 6.0 3 ------- null}
- -t 0.43488 -s 2 -d 3 -p cbr -e 210 -c 2 -i 22 -a 2 -x {1.0 6.0 22 ------- null}
h -t 0.43488 -s 2 -d 3 -p cbr -e 210 -c 2 -i 22 -a 2 -x {1.0 6.0 -1 ------- null}
+ -t 0.434999999999999 -s 1 -d 2 -p cbr -e 210 -c 2 -i 36 -a 2 -x {1.0 6.0 36 ------- null}
- -t 0.434999999999999 -s 1 -d 2 -p cbr -e 210 -c 2 -i 36 -a 2 -x {1.0 6.0 36 ------- null}
h -t 0.434999999999999 -s 1 -d 2 -p cbr -e 210 -c 2 -i 36 -a 2 -x {1.0 6.0 -1 ------- null}
r -t 0.435429999999999 -s 1 -d 2 -p cbr -e 210 -c 2 -i 33 -a 2 -x {1.0 6.0 33 ------- null}
+ -t 0.435429999999999 -s 2 -d 3 -p cbr -e 210 -c 2 -i 33 -a 2 -x {1.0 6.0 33 ------- null}
+ -t 0.438749999999999 -s 1 -d 2 -p cbr -e 210 -c 2 -i 37 -a 2 -x {1.0 6.0 37 ------- null}
- -t 0.438749999999999 -s 1 -d 2 -p cbr -e 210 -c 2 -i 37 -a 2 -x {1.0 6.0 37 ------- null}
h -t 0.438749999999999 -s 1 -d 2 -p cbr -e 210 -c 2 -i 37 -a 2 -x {1.0 6.0 -1 ------- null}
r -t 0.439179999999999 -s 1 -d 2 -p cbr -e 210 -c 2 -i 34 -a 2 -x {1.0 6.0 34 ------- null}
+ -t 0.439179999999999 -s 2 -d 3 -p cbr -e 210 -c 2 -i 34 -a 2 -x {1.0 6.0 34 ------- null}
r -t 0.43968 -s 2 -d 3 -p cbr -e 210 -c 2 -i 4 -a 2 -x {1.0 6.0 4 ------- null}
h -t 0.43968 -s 3 -d 7 -p cbr -e 210 -c 2 -i 4 -a 2 -x {1.0 6.0 4 ------- null}
- -t 0.44048 -s 2 -d 3 -p cbr -e 210 -c 2 -i 23 -a 2 -x {1.0 6.0 23 ------- null}
h -t 0.44048 -s 2 -d 3 -p cbr -e 210 -c 2 -i 23 -a 2 -x {1.0 6.0 -1 ------- null}
+ -t 0.442499999999999 -s 1 -d 2 -p cbr -e 210 -c 2 -i 38 -a 2 -x {1.0 6.0 38 ------- null}
- -t 0.442499999999999 -s 1 -d 2 -p cbr -e 210 -c 2 -i 38 -a 2 -x {1.0 6.0 38 ------- null}
h -t 0.442499999999999 -s 1 -d 2 -p cbr -e 210 -c 2 -i 38 -a 2 -x {1.0 6.0 -1 ------- null}
r -t 0.442929999999999 -s 1 -d 2 -p cbr -e 210 -c 2 -i 35 -a 2 -x {1.0 6.0 35 ------- null}
+ -t 0.442929999999999 -s 2 -d 3 -p cbr -e 210 -c 2 -i 35 -a 2 -x {1.0 6.0 35 ------- null}
r -t 0.44528 -s 2 -d 3 -p cbr -e 210 -c 2 -i 5 -a 2 -x {1.0 6.0 5 ------- null}
h -t 0.44528 -s 3 -d 7 -p cbr -e 210 -c 2 -i 5 -a 2 -x {1.0 6.0 5 ------- null}
- -t 0.44608 -s 2 -d 3 -p cbr -e 210 -c 2 -i 24 -a 2 -x {1.0 6.0 24 ------- null}
h -t 0.44608 -s 2 -d 3 -p cbr -e 210 -c 2 -i 24 -a 2 -x {1.0 6.0 -1 ------- null}
+ -t 0.446249999999999 -s 1 -d 2 -p cbr -e 210 -c 2 -i 39 -a 2 -x {1.0 6.0 39 ------- null}
- -t 0.446249999999999 -s 1 -d 2 -p cbr -e 210 -c 2 -i 39 -a 2 -x {1.0 6.0 39 ------- null}
h -t 0.446249999999999 -s 1 -d 2 -p cbr -e 210 -c 2 -i 39 -a 2 -x {1.0 6.0 -1 ------- null}
r -t 0.446679999999999 -s 1 -d 2 -p cbr -e 210 -c 2 -i 36 -a 2 -x {1.0 6.0 36 ------- null}
+ -t 0.446679999999999 -s 2 -d 3 -p cbr -e 210 -c 2 -i 36 -a 2 -x {1.0 6.0 36 ------- null}
+ -t 0.449999999999999 -s 1 -d 2 -p cbr -e 210 -c 2 -i 40 -a 2 -x {1.0 6.0 40 ------- null}
- -t 0.449999999999999 -s 1 -d 2 -p cbr -e 210 -c 2 -i 40 -a 2 -x {1.0 6.0 40 ------- null}
h -t 0.449999999999999 -s 1 -d 2 -p cbr -e 210 -c 2 -i 40 -a 2 -x {1.0 6.0 -1 ------- null}
r -t 0.450429999999999 -s 1 -d 2 -p cbr -e 210 -c 2 -i 37 -a 2 -x {1.0 6.0 37 ------- null}
+ -t 0.450429999999999 -s 2 -d 3 -p cbr -e 210 -c 2 -i 37 -a 2 -x {1.0 6.0 37 ------- null}
r -t 0.45088 -s 2 -d 3 -p cbr -e 210 -c 2 -i 6 -a 2 -x {1.0 6.0 6 ------- null}
h -t 0.45088 -s 3 -d 7 -p cbr -e 210 -c 2 -i 6 -a 2 -x {1.0 6.0 6 ------- null}
- -t 0.45168 -s 2 -d 3 -p cbr -e 210 -c 2 -i 25 -a 2 -x {1.0 6.0 25 ------- null}
h -t 0.45168 -s 2 -d 3 -p cbr -e 210 -c 2 -i 25 -a 2 -x {1.0 6.0 -1 ------- null}
+ -t 0.453749999999999 -s 1 -d 2 -p cbr -e 210 -c 2 -i 41 -a 2 -x {1.0 6.0 41 ------- null}
- -t 0.453749999999999 -s 1 -d 2 -p cbr -e 210 -c 2 -i 41 -a 2 -x {1.0 6.0 41 ------- null}
h -t 0.453749999999999 -s 1 -d 2 -p cbr -e 210 -c 2 -i 41 -a 2 -x {1.0 6.0 -1 ------- null}
r -t 0.454179999999999 -s 1 -d 2 -p cbr -e 210 -c 2 -i 38 -a 2 -x {1.0 6.0 38 ------- null}
+ -t 0.454179999999999 -s 2 -d 3 -p cbr -e 210 -c 2 -i 38 -a 2 -x {1.0 6.0 38 ------- null}
r -t 0.45648 -s 2 -d 3 -p cbr -e 210 -c 2 -i 7 -a 2 -x {1.0 6.0 7 ------- null}
h -t 0.45648 -s 3 -d 7 -p cbr -e 210 -c 2 -i 7 -a 2 -x {1.0 6.0 7 ------- null}
- -t 0.45728 -s 2 -d 3 -p cbr -e 210 -c 2 -i 26 -a 2 -x {1.0 6.0 26 ------- null}
h -t 0.45728 -s 2 -d 3 -p cbr -e 210 -c 2 -i 26 -a 2 -x {1.0 6.0 -1 ------- null}
+ -t 0.457499999999999 -s 1 -d 2 -p cbr -e 210 -c 2 -i 42 -a 2 -x {1.0 6.0 42 ------- null}
- -t 0.457499999999999 -s 1 -d 2 -p cbr -e 210 -c 2 -i 42 -a 2 -x {1.0 6.0 42 ------- null}
h -t 0.457499999999999 -s 1 -d 2 -p cbr -e 210 -c 2 -i 42 -a 2 -x {1.0 6.0 -1 ------- null}
r -t 0.457929999999999 -s 1 -d 2 -p cbr -e 210 -c 2 -i 39 -a 2 -x {1.0 6.0 39 ------- null}
+ -t 0.457929999999999 -s 2 -d 3 -p cbr -e 210 -c 2 -i 39 -a 2 -x {1.0 6.0 39 ------- null}
+ -t 0.461249999999999 -s 1 -d 2 -p cbr -e 210 -c 2 -i 43 -a 2 -x {1.0 6.0 43 ------- null}
- -t 0.461249999999999 -s 1 -d 2 -p cbr -e 210 -c 2 -i 43 -a 2 -x {1.0 6.0 43 ------- null}
h -t 0.461249999999999 -s 1 -d 2 -p cbr -e 210 -c 2 -i 43 -a 2 -x {1.0 6.0 -1 ------- null}
r -t 0.461679999999999 -s 1 -d 2 -p cbr -e 210 -c 2 -i 40 -a 2 -x {1.0 6.0 40 ------- null}
+ -t 0.461679999999999 -s 2 -d 3 -p cbr -e 210 -c 2 -i 40 -a 2 -x {1.0 6.0 40 ------- null}
r -t 0.46208 -s 2 -d 3 -p cbr -e 210 -c 2 -i 8 -a 2 -x {1.0 6.0 8 ------- null}
h -t 0.46208 -s 3 -d 7 -p cbr -e 210 -c 2 -i 8 -a 2 -x {1.0 6.0 8 ------- null}
- -t 0.46288 -s 2 -d 3 -p cbr -e 210 -c 2 -i 27 -a 2 -x {1.0 6.0 27 ------- null}
h -t 0.46288 -s 2 -d 3 -p cbr -e 210 -c 2 -i 27 -a 2 -x {1.0 6.0 -1 ------- null}
+ -t 0.464999999999999 -s 1 -d 2 -p cbr -e 210 -c 2 -i 44 -a 2 -x {1.0 6.0 44 ------- null}
- -t 0.464999999999999 -s 1 -d 2 -p cbr -e 210 -c 2 -i 44 -a 2 -x {1.0 6.0 44 ------- null}
h -t 0.464999999999999 -s 1 -d 2 -p cbr -e 210 -c 2 -i 44 -a 2 -x {1.0 6.0 -1 ------- null}
r -t 0.465429999999999 -s 1 -d 2 -p cbr -e 210 -c 2 -i 41 -a 2 -x {1.0 6.0 41 ------- null}
+ -t 0.465429999999999 -s 2 -d 3 -p cbr -e 210 -c 2 -i 41 -a 2 -x {1.0 6.0 41 ------- null}
+ -t 0.46728 -s 3 -d 7 -p cbr -e 210 -c 2 -i 0 -a 2 -x {1.0 6.0 0 ------- null}
- -t 0.46728 -s 3 -d 7 -p cbr -e 210 -c 2 -i 0 -a 2 -x {1.0 6.0 0 ------- null}
h -t 0.46728 -s 3 -d 7 -p cbr -e 210 -c 2 -i 0 -a 2 -x {1.0 6.0 -1 ------- null}
d -t 0.467284 -s 5 -d 7 -p cbr -e 210 -c 2 -i 0 -a 2 -x {1.0 6.0 0 ------- null}
d -t 0.467284 -s 4 -d 7 -p cbr -e 210 -c 2 -i 0 -a 2 -x {1.0 6.0 0 ------- null}
r -t 0.46768 -s 2 -d 3 -p cbr -e 210 -c 2 -i 9 -a 2 -x {1.0 6.0 9 ------- null}
h -t 0.46768 -s 3 -d 7 -p cbr -e 210 -c 2 -i 9 -a 2 -x {1.0 6.0 9 ------- null}
- -t 0.46848 -s 2 -d 3 -p cbr -e 210 -c 2 -i 28 -a 2 -x {1.0 6.0 28 ------- null}
h -t 0.46848 -s 2 -d 3 -p cbr -e 210 -c 2 -i 28 -a 2 -x {1.0 6.0 -1 ------- null}
+ -t 0.468749999999999 -s 1 -d 2 -p cbr -e 210 -c 2 -i 45 -a 2 -x {1.0 6.0 45 ------- null}
- -t 0.468749999999999 -s 1 -d 2 -p cbr -e 210 -c 2 -i 45 -a 2 -x {1.0 6.0 45 ------- null}
h -t 0.468749999999999 -s 1 -d 2 -p cbr -e 210 -c 2 -i 45 -a 2 -x {1.0 6.0 -1 ------- null}
r -t 0.469179999999999 -s 1 -d 2 -p cbr -e 210 -c 2 -i 42 -a 2 -x {1.0 6.0 42 ------- null}
+ -t 0.469179999999999 -s 2 -d 3 -p cbr -e 210 -c 2 -i 42 -a 2 -x {1.0 6.0 42 ------- null}
+ -t 0.472499999999999 -s 1 -d 2 -p cbr -e 210 -c 2 -i 46 -a 2 -x {1.0 6.0 46 ------- null}
- -t 0.472499999999999 -s 1 -d 2 -p cbr -e 210 -c 2 -i 46 -a 2 -x {1.0 6.0 46 ------- null}
h -t 0.472499999999999 -s 1 -d 2 -p cbr -e 210 -c 2 -i 46 -a 2 -x {1.0 6.0 -1 ------- null}
+ -t 0.47288 -s 3 -d 7 -p cbr -e 210 -c 2 -i 1 -a 2 -x {1.0 6.0 1 ------- null}
- -t 0.47288 -s 3 -d 7 -p cbr -e 210 -c 2 -i 1 -a 2 -x {1.0 6.0 1 ------- null}
h -t 0.47288 -s 3 -d 7 -p cbr -e 210 -c 2 -i 1 -a 2 -x {1.0 6.0 -1 ------- null}
d -t 0.472884 -s 5 -d 7 -p cbr -e 210 -c 2 -i 1 -a 2 -x {1.0 6.0 1 ------- null}
d -t 0.472884 -s 4 -d 7 -p cbr -e 210 -c 2 -i 1 -a 2 -x {1.0 6.0 1 ------- null}
r -t 0.472929999999999 -s 1 -d 2 -p cbr -e 210 -c 2 -i 43 -a 2 -x {1.0 6.0 43 ------- null}
+ -t 0.472929999999999 -s 2 -d 3 -p cbr -e 210 -c 2 -i 43 -a 2 -x {1.0 6.0 43 ------- null}
r -t 0.47328 -s 2 -d 3 -p cbr -e 210 -c 2 -i 10 -a 2 -x {1.0 6.0 10 ------- null}
h -t 0.47328 -s 3 -d 7 -p cbr -e 210 -c 2 -i 10 -a 2 -x {1.0 6.0 10 ------- null}
- -t 0.47408 -s 2 -d 3 -p cbr -e 210 -c 2 -i 29 -a 2 -x {1.0 6.0 29 ------- null}
h -t 0.47408 -s 2 -d 3 -p cbr -e 210 -c 2 -i 29 -a 2 -x {1.0 6.0 -1 ------- null}
+ -t 0.476249999999999 -s 1 -d 2 -p cbr -e 210 -c 2 -i 47 -a 2 -x {1.0 6.0 47 ------- null}
- -t 0.476249999999999 -s 1 -d 2 -p cbr -e 210 -c 2 -i 47 -a 2 -x {1.0 6.0 47 ------- null}
h -t 0.476249999999999 -s 1 -d 2 -p cbr -e 210 -c 2 -i 47 -a 2 -x {1.0 6.0 -1 ------- null}
r -t 0.476679999999999 -s 1 -d 2 -p cbr -e 210 -c 2 -i 44 -a 2 -x {1.0 6.0 44 ------- null}
+ -t 0.476679999999999 -s 2 -d 3 -p cbr -e 210 -c 2 -i 44 -a 2 -x {1.0 6.0 44 ------- null}
+ -t 0.47848 -s 3 -d 7 -p cbr -e 210 -c 2 -i 2 -a 2 -x {1.0 6.0 2 ------- null}
- -t 0.47848 -s 3 -d 7 -p cbr -e 210 -c 2 -i 2 -a 2 -x {1.0 6.0 2 ------- null}
h -t 0.47848 -s 3 -d 7 -p cbr -e 210 -c 2 -i 2 -a 2 -x {1.0 6.0 -1 ------- null}
d -t 0.478484 -s 5 -d 7 -p cbr -e 210 -c 2 -i 2 -a 2 -x {1.0 6.0 2 ------- null}
d -t 0.478484 -s 4 -d 7 -p cbr -e 210 -c 2 -i 2 -a 2 -x {1.0 6.0 2 ------- null}
r -t 0.47888 -s 2 -d 3 -p cbr -e 210 -c 2 -i 11 -a 2 -x {1.0 6.0 11 ------- null}
h -t 0.47888 -s 3 -d 7 -p cbr -e 210 -c 2 -i 11 -a 2 -x {1.0 6.0 11 ------- null}
- -t 0.47968 -s 2 -d 3 -p cbr -e 210 -c 2 -i 30 -a 2 -x {1.0 6.0 30 ------- null}
h -t 0.47968 -s 2 -d 3 -p cbr -e 210 -c 2 -i 30 -a 2 -x {1.0 6.0 -1 ------- null}
+ -t 0.479999999999999 -s 1 -d 2 -p cbr -e 210 -c 2 -i 48 -a 2 -x {1.0 6.0 48 ------- null}
- -t 0.479999999999999 -s 1 -d 2 -p cbr -e 210 -c 2 -i 48 -a 2 -x {1.0 6.0 48 ------- null}
h -t 0.479999999999999 -s 1 -d 2 -p cbr -e 210 -c 2 -i 48 -a 2 -x {1.0 6.0 -1 ------- null}
r -t 0.480429999999999 -s 1 -d 2 -p cbr -e 210 -c 2 -i 45 -a 2 -x {1.0 6.0 45 ------- null}
+ -t 0.480429999999999 -s 2 -d 3 -p cbr -e 210 -c 2 -i 45 -a 2 -x {1.0 6.0 45 ------- null}
+ -t 0.483749999999999 -s 1 -d 2 -p cbr -e 210 -c 2 -i 49 -a 2 -x {1.0 6.0 49 ------- null}